 Gaussian 09, Revision D.01,
 Gaussian 09:  ES64L-G09RevD.01 24-Apr-2013

 ------------------------------
 #HF/cc-pVDZ SP POP=AllOrbitals
 ------------------------------

 -------
 comment
 -------
 Symbolic Z-matrix:
 Charge =  0 Multiplicity = 1

                         Standard orientation:
 ---------------------------------------------------------------------
 Center     Atomic      Atomic             Coordinates (Angstroms)
 Number     Number       Type             X           Y           Z
 ---------------------------------------------------------------------
      1          8           0        0.000000    0.118130    0.000000
      2          1           0        0.762383   -0.478971    0.000000
      3          1           0       -0.762383   -0.466071    0.000000
 ---------------------------------------------------------------------

 SCF Done:  E(RHF) =  -76.0263296650     A.U. after   10 cycles

 The electronic state is 1-A'.
 Alpha  occ. eigenvalues --  -20.55171  -1.33312  -0.69539  -0.56533  -0.49265
 Alpha virt. eigenvalues --    0.18433   0.25520   0.78388   0.84800   1.16401
 Alpha virt. eigenvalues --    1.20025   1.25382   1.44538   1.47457   1.67311
 Alpha virt. eigenvalues --    1.86876   1.92728   2.43360   2.47492   3.27926

 Mulliken charges:
               1
     1  O   -0.314009
     2  H    0.158845
     3  H    0.155164
 Sum of Mulliken charges =   0.00000

 Dipole moment (field-independent basis, Debye):
    X=             -0.0052    Y=             -2.0638    Z=              0.0000  Tot=              2.0638
 Quadrupole moment (field-independent basis, Debye-Ang):
   XX=             -4.1084   YY=             -5.8872   ZZ=             -7.0496
   XY=             -0.0201   XZ=              0.0000   YZ=              0.0000

 Normal termination of Gaussian 09 at Wed Apr 15 21:33:58 2020.
