 Q-Chem 5.1, Q-Chem, Inc., Pleasanton, CA (2018)
 Q-Chem 5.1.2 for Intel X86 EM64T Linux

User input:
--------------------------------------------------------------

# QCHEM detects only Cs group for this geometry
# We'd probably need to switch to Z-matrix to take
# full advantage of C2V symmetry
$molecule
0 1
O    -0.0099755784    0.0000000000    0.9726896344
H     0.0080215243    0.0000000000    0.0034780470
H     0.9319670541    0.0000000000    1.2005793185
$end

$rem
METHOD         = EOM-CCSD
SCF_ALGORITHM  = diis_gdm
SYMMETRY       = true
CC_SYMMETRY    = true
DIP_SINGLETS   = [6,4]
DIP_TRIPLETS   = [2,4]
BASIS          = cc-pVTZ
CC_EOM_PROP    = false
CC_MEMORY      = 256
EOM_DAVIDSON_CONVERGENCE = 6
$end
--------------------------------------------------------------

             Standard Nuclear Orientation (Angstroms)
    I     Atom           X                Y                Z
 ----------------------------------------------------------------
    1      O       0.0000688544    -0.1212865197    -0.0000000000
    2      H      -0.7563717411     0.4849251779    -0.0000000000
    3      H       0.7558209057     0.4853669795     0.0000000000
 ----------------------------------------------------------------

   11     -76.0559278416      9.69e-09  Convergence criterion met
 Total energy in the final basis set =      -76.0559278416
 CCSD total energy           = -76.32426461
        Solving for EOMDIP-CCSD A' transitions to singlet states
 EOMDIP-CCSD transition 1/A'
 Total energy = -76.32425877 a.u.  Excitation energy = 0.0002 eV.
 EOMDIP-CCSD transition 2/A'
 Total energy = -74.79144314 a.u.  Excitation energy = 41.7102 eV.
 EOMDIP-CCSD transition 3/A'
 Total energy = -74.62382903 a.u.  Excitation energy = 46.2712 eV.
 EOMDIP-CCSD transition 4/A'
 Total energy = -74.54196704 a.u.  Excitation energy = 48.4988 eV.
 EOMDIP-CCSD transition 5/A'
 Total energy = -74.37693696 a.u.  Excitation energy = 52.9895 eV.
 EOMDIP-CCSD transition 6/A'
 Total energy = -73.85480744 a.u.  Excitation energy = 67.1973 eV.
        Solving for EOMDIP-CCSD A" transitions to singlet states
 EOMDIP-CCSD transition 1/A"
 Total energy = -74.73717954 a.u.  Excitation energy = 43.1868 eV.
 EOMDIP-CCSD transition 2/A"
 Total energy = -74.62398910 a.u.  Excitation energy = 46.2668 eV.
 EOMDIP-CCSD transition 3/A"
 Total energy = -73.90258406 a.u.  Excitation energy = 65.8973 eV.
        Solving for EOMDIP-CCSD A' transitions to triplet states
 EOMDIP-CCSD transition 1/A'
 Total energy = -74.61944983 a.u.  Excitation energy = 46.3904 eV.
 EOMDIP-CCSD transition 2/A'
 Total energy = -74.08577843 a.u.  Excitation energy = 60.9123 eV.
        Solving for EOMDIP-CCSD A" transitions to triplet states
 EOMDIP-CCSD transition 1/A"
 Total energy = -74.82712934 a.u.  Excitation energy = 40.7391 eV.
 EOMDIP-CCSD transition 2/A"
 Total energy = -74.68925214 a.u.  Excitation energy = 44.4910 eV.
 EOMDIP-CCSD transition 3/A"
 Total energy = -74.15110134 a.u.  Excitation energy = 59.1348 eV.

             Orbital Energies (a.u.) and Symmetries
 --------------------------------------------------------------

 Alpha MOs, Restricted
 -- Occupied --
-20.558  -1.341  -0.700  -0.579  -0.504
  1 A'    2 A'    3 A'    4 A'    1 A"

 Beta MOs, Restricted
 -- Occupied --
-20.558  -1.341  -0.700  -0.579  -0.504
  1 A'    2 A'    3 A'    4 A'    1 A"

          Ground-State Mulliken Net Atomic Charges

     Atom                 Charge (a.u.)
  ----------------------------------------
      1 O                    -0.485052
      2 H                     0.242563
      3 H                     0.242490
  ----------------------------------------
  Sum of atomic charges =    -0.000000

                    Cartesian Multipole Moments
 -----------------------------------------------------------------
    Charge (ESU x 10^10)
                -0.0000
    Dipole Moment (Debye)
         X      -0.0010      Y       2.0660      Z      -0.0000
       Tot       2.0660
    Quadrupole Moments (Debye-Ang)
        XX      -4.2207     XY       0.0003     YY      -6.0020
        XZ      -0.0000     YZ       0.0000     ZZ      -7.3192

 Total job time:  51.04s(wall), 46.31s(cpu)
        *  Thank you very much for using Q-Chem.  Have a nice day.  *
