 Q-Chem 5.1, Q-Chem, Inc., Pleasanton, CA (2018)
 Q-Chem 5.1.2 for Intel X86 EM64T Linux

User input:
--------------------------------------------------------------

# QCHEM detects only Cs group for this geometry
# We'd probably need to switch to Z-matrix to take
# full advantage of C2V symmetry
$molecule
0 1
O    -0.0099755784    0.0000000000    0.9726896344
H     0.0080215243    0.0000000000    0.0034780470
H     0.9319670541    0.0000000000    1.2005793185
$end

$rem
METHOD         = EOM-CCSD
SCF_ALGORITHM  = diis_gdm
SYMMETRY       = true
CC_SYMMETRY    = true
DIP_SINGLETS   = [6,4]
DIP_TRIPLETS   = [2,4]
BASIS          = cc-pVQZ
CC_EOM_PROP    = false
CC_MEMORY      = 1024
EOM_DAVIDSON_CONVERGENCE = 6
$end
--------------------------------------------------------------

             Standard Nuclear Orientation (Angstroms)
    I     Atom           X                Y                Z
 ----------------------------------------------------------------
    1      O       0.0000688544    -0.1212865197    -0.0000000000
    2      H      -0.7563717411     0.4849251779    -0.0000000000
    3      H       0.7558209057     0.4853669795     0.0000000000
 ----------------------------------------------------------------

   12     -76.0635305062      7.72e-09  Convergence criterion met
 Total energy in the final basis set =      -76.0635305062
 CCSD total energy           = -76.35040640
        Solving for EOMDIP-CCSD A' transitions to singlet states
 EOMDIP-CCSD transition 1/A'
 Total energy = -76.35040636 a.u.  Excitation energy = 0.0000 eV.
 EOMDIP-CCSD transition 2/A'
 Total energy = -74.80669354 a.u.  Excitation energy = 42.0066 eV.
 EOMDIP-CCSD transition 3/A'
 Total energy = -74.63914830 a.u.  Excitation energy = 46.5657 eV.
 EOMDIP-CCSD transition 4/A'
 Total energy = -74.55674338 a.u.  Excitation energy = 48.8081 eV.
 EOMDIP-CCSD transition 5/A'
 Total energy = -74.39184770 a.u.  Excitation energy = 53.2951 eV.
 EOMDIP-CCSD transition 6/A'
 Total energy = -73.87023422 a.u.  Excitation energy = 67.4889 eV.
        Solving for EOMDIP-CCSD A" transitions to singlet states
 EOMDIP-CCSD transition 1/A"
 Total energy = -74.75255181 a.u.  Excitation energy = 43.4798 eV.
 EOMDIP-CCSD transition 2/A"
 Total energy = -74.63886571 a.u.  Excitation energy = 46.5734 eV.
 EOMDIP-CCSD transition 3/A"
 Total energy = -73.91855867 a.u.  Excitation energy = 66.1739 eV.
        Solving for EOMDIP-CCSD A' transitions to triplet states
 EOMDIP-CCSD transition 1/A'
 Total energy = -74.63340421 a.u.  Excitation energy = 46.7220 eV.
 EOMDIP-CCSD transition 2/A'
 Total energy = -74.09947845 a.u.  Excitation energy = 61.2509 eV.
        Solving for EOMDIP-CCSD A" transitions to triplet states
 EOMDIP-CCSD transition 1/A"
 Total energy = -74.84089655 a.u.  Excitation energy = 41.0759 eV.
 EOMDIP-CCSD transition 2/A"
 Total energy = -74.70298661 a.u.  Excitation energy = 44.8286 eV.
 EOMDIP-CCSD transition 3/A"
 Total energy = -74.16469145 a.u.  Excitation energy = 59.4763 eV.

             Orbital Energies (a.u.) and Symmetries
 --------------------------------------------------------------

 Alpha MOs, Restricted
 -- Occupied --
-20.563  -1.345  -0.704  -0.584  -0.508
  1 A'    2 A'    3 A'    4 A'    1 A"

 Beta MOs, Restricted
 -- Occupied --
-20.563  -1.345  -0.704  -0.584  -0.508
  1 A'    2 A'    3 A'    4 A'    1 A"

          Ground-State Mulliken Net Atomic Charges

     Atom                 Charge (a.u.)
  ----------------------------------------
      1 O                    -0.532598
      2 H                     0.266348
      3 H                     0.266250
  ----------------------------------------
  Sum of atomic charges =     0.000000

                    Cartesian Multipole Moments
 -----------------------------------------------------------------
    Charge (ESU x 10^10)
                 0.0000
    Dipole Moment (Debye)
         X      -0.0010      Y       2.0489      Z      -0.0000
       Tot       2.0489
    Quadrupole Moments (Debye-Ang)
        XX      -4.2559     XY       0.0004     YY      -6.0903
        XZ       0.0000     YZ      -0.0000     ZZ      -7.4382

 Total job time:  247.86s(wall), 124.92s(cpu)
        *  Thank you very much for using Q-Chem.  Have a nice day.  *
