 Q-Chem 5.1, Q-Chem, Inc., Pleasanton, CA (2018)
 Q-Chem 5.1.2 for Intel X86 EM64T Linux

User input:
--------------------------------------------------------------

# QCHEM detects only Cs group for this geometry
# We'd probably need to switch to Z-matrix to take
# full advantage of C2V symmetry
$molecule
0 1
O    -0.0099755784    0.0000000000    0.9726896344
H     0.0080215243    0.0000000000    0.0034780470
H     0.9319670541    0.0000000000    1.2005793185
$end

$rem
METHOD         = EOM-CCSD
SCF_ALGORITHM  = diis_gdm
SYMMETRY       = true
CC_SYMMETRY    = true
DIP_SINGLETS   = [6,4]
DIP_TRIPLETS   = [2,4]
BASIS          = cc-pVDZ
CC_EOM_PROP    = false
CC_MEMORY      = 256
EOM_DAVIDSON_CONVERGENCE = 6
$end
--------------------------------------------------------------

             Standard Nuclear Orientation (Angstroms)
    I     Atom           X                Y                Z
 ----------------------------------------------------------------
    1      O       0.0000688544    -0.1212865197    -0.0000000000
    2      H      -0.7563717411     0.4849251779    -0.0000000000
    3      H       0.7558209057     0.4853669795     0.0000000000
 ----------------------------------------------------------------

   10     -76.0259221113      6.62e-09  Convergence criterion met
 Total energy in the final basis set =      -76.0259221113
 CCSD total energy           = -76.23816290
        Solving for EOMDIP-CCSD A' transitions to singlet states
 EOMDIP-CCSD transition 1/A'
 Total energy = -76.23816042 a.u.  Excitation energy = 0.0001 eV.
 EOMDIP-CCSD transition 2/A'
 Total energy = -74.73864294 a.u.  Excitation energy = 40.8040 eV.
 EOMDIP-CCSD transition 3/A'
 Total energy = -74.56682512 a.u.  Excitation energy = 45.4794 eV.
 EOMDIP-CCSD transition 4/A'
 Total energy = -74.48473553 a.u.  Excitation energy = 47.7132 eV.
 EOMDIP-CCSD transition 5/A'
 Total energy = -74.31780431 a.u.  Excitation energy = 52.2556 eV.
 EOMDIP-CCSD transition 6/A'
 Total energy = -73.79279578 a.u.  Excitation energy = 66.5418 eV.
        Solving for EOMDIP-CCSD A" transitions to singlet states
 EOMDIP-CCSD transition 1/A"
 Total energy = -74.68192173 a.u.  Excitation energy = 42.3475 eV.
 EOMDIP-CCSD transition 2/A"
 Total energy = -74.56844317 a.u.  Excitation energy = 45.4354 eV.
 EOMDIP-CCSD transition 3/A"
 Total energy = -73.84222308 a.u.  Excitation energy = 65.1968 eV.
        Solving for EOMDIP-CCSD A' transitions to triplet states
 EOMDIP-CCSD transition 1/A'
 Total energy = -74.56457391 a.u.  Excitation energy = 45.5407 eV.
 EOMDIP-CCSD transition 2/A'
 Total energy = -74.03164577 a.u.  Excitation energy = 60.0424 eV.
        Solving for EOMDIP-CCSD A" transitions to triplet states
 EOMDIP-CCSD transition 1/A"
 Total energy = -74.77777798 a.u.  Excitation energy = 39.7391 eV.
 EOMDIP-CCSD transition 2/A"
 Total energy = -74.63721746 a.u.  Excitation energy = 43.5639 eV.
 EOMDIP-CCSD transition 3/A"
 Total energy = -74.09907792 a.u.  Excitation energy = 58.2075 eV.

             Orbital Energies (a.u.) and Symmetries
 --------------------------------------------------------------

 Alpha MOs, Restricted
 -- Occupied --
-20.554  -1.332  -0.689  -0.568  -0.493
  1 A'    2 A'    3 A'    4 A'    1 A"

 Beta MOs, Restricted
 -- Occupied --
-20.554  -1.332  -0.689  -0.568  -0.493
  1 A'    2 A'    3 A'    4 A'    1 A"

          Ground-State Mulliken Net Atomic Charges

     Atom                 Charge (a.u.)
  ----------------------------------------
      1 O                    -0.315314
      2 H                     0.157716
      3 H                     0.157599
  ----------------------------------------
  Sum of atomic charges =     0.000000

                    Cartesian Multipole Moments
 -----------------------------------------------------------------
    Charge (ESU x 10^10)
                 0.0000
    Dipole Moment (Debye)
         X      -0.0010      Y       2.0976      Z       0.0000
       Tot       2.0976
    Quadrupole Moments (Debye-Ang)
        XX      -4.1841     XY       0.0003     YY      -5.8364
        XZ       0.0000     YZ       0.0000     ZZ      -7.0589

 Total job time:  17.24s(wall), 16.36s(cpu)
        *  Thank you very much for using Q-Chem.  Have a nice day.  *
