 Q-Chem 5.1, Q-Chem, Inc., Pleasanton, CA (2018)
 Q-Chem 5.1.2 for Intel X86 EM64T Linux

User input:
--------------------------------------------------------------

# QCHEM detects only Cs group for this geometry
# We'd probably need to switch to Z-matrix to take
# full advantage of C2V symmetry
$molecule
0 1
O    -0.0099755784    0.0000000000    0.9726896344
H     0.0080215243    0.0000000000    0.0034780470
H     0.9319670541    0.0000000000    1.2005793185
$end

$rem
METHOD         = EOM-CCSD
SCF_ALGORITHM  = diis_gdm
SYMMETRY       = true
CC_SYMMETRY    = true
DIP_SINGLETS   = [7,3]
DIP_TRIPLETS   = [3,3]
BASIS          = cc-pCVTZ
CC_EOM_PROP    = false
CC_MEMORY      = 1024
EOM_DAVIDSON_CONVERGENCE = 6
$end
--------------------------------------------------------------

             Standard Nuclear Orientation (Angstroms)
    I     Atom           X                Y                Z
 ----------------------------------------------------------------
    1      O       0.0000688544    -0.1212865197    -0.0000000000
    2      H      -0.7563717411     0.4849251779    -0.0000000000
    3      H       0.7558209057     0.4853669795     0.0000000000
 ----------------------------------------------------------------

   12     -76.0561154392      7.23e-09  Convergence criterion met
 Total energy in the final basis set =      -76.0561154392
 CCSD total energy           = -76.32748254
        Solving for EOMDIP-CCSD A' transitions to singlet states
 EOMDIP-CCSD transition 1/A'
 Total energy = -76.32748264 a.u.  Excitation energy = -0.0000 eV.
 EOMDIP-CCSD transition 2/A'
 Total energy = -74.79368564 a.u.  Excitation energy = 41.7367 eV.
 EOMDIP-CCSD transition 3/A'
 Total energy = -74.62624175 a.u.  Excitation energy = 46.2931 eV.
 EOMDIP-CCSD transition 4/A'
 Total energy = -74.54449300 a.u.  Excitation energy = 48.5176 eV.
 EOMDIP-CCSD transition 5/A'
 Total energy = -74.37968486 a.u.  Excitation energy = 53.0023 eV.
 EOMDIP-CCSD transition 6/A'
 Total energy = -73.85716400 a.u.  Excitation energy = 67.2208 eV.
 EOMDIP-CCSD transition 7/A'
 Total energy = -73.68941694 a.u.  Excitation energy = 71.7854 eV.
        Solving for EOMDIP-CCSD A" transitions to singlet states
 EOMDIP-CCSD transition 1/A"
 Total energy = -74.73947910 a.u.  Excitation energy = 43.2118 eV.
 EOMDIP-CCSD transition 2/A"
 Total energy = -74.62648895 a.u.  Excitation energy = 46.2864 eV.
 EOMDIP-CCSD transition 3/A"
 Total energy = -73.90504630 a.u.  Excitation energy = 65.9178 eV.
        Solving for EOMDIP-CCSD A' transitions to triplet states
 EOMDIP-CCSD transition 1/A'
 Total energy = -74.62189571 a.u.  Excitation energy = 46.4114 eV.
 EOMDIP-CCSD transition 2/A'
 Total energy = -74.08792169 a.u.  Excitation energy = 60.9416 eV.
 EOMDIP-CCSD transition 3/A'
 Total energy = -73.95335977 a.u.  Excitation energy = 64.6032 eV.
        Solving for EOMDIP-CCSD A" transitions to triplet states
 EOMDIP-CCSD transition 1/A"
 Total energy = -74.82927467 a.u.  Excitation energy = 40.7683 eV.
 EOMDIP-CCSD transition 2/A"
 Total energy = -74.69169273 a.u.  Excitation energy = 44.5121 eV.
 EOMDIP-CCSD transition 3/A"
 Total energy = -74.15322006 a.u.  Excitation energy = 59.1647 eV.

             Orbital Energies (a.u.) and Symmetries
 --------------------------------------------------------------

 Alpha MOs, Restricted
 -- Occupied --
-20.557  -1.341  -0.700  -0.580  -0.504
  1 A'    2 A'    3 A'    4 A'    1 A"

 Beta MOs, Restricted
 -- Occupied --
-20.557  -1.341  -0.700  -0.580  -0.504
  1 A'    2 A'    3 A'    4 A'    1 A"

          Ground-State Mulliken Net Atomic Charges

     Atom                 Charge (a.u.)
  ----------------------------------------
      1 O                    -0.478776
      2 H                     0.239445
      3 H                     0.239331
  ----------------------------------------
  Sum of atomic charges =     0.000000

                    Cartesian Multipole Moments
 -----------------------------------------------------------------
    Charge (ESU x 10^10)
                 0.0000
    Dipole Moment (Debye)
         X      -0.0010      Y       2.0665      Z      -0.0000
       Tot       2.0665
    Quadrupole Moments (Debye-Ang)
        XX      -4.2218     XY       0.0004     YY      -6.0022
        XZ      -0.0000     YZ      -0.0000     ZZ      -7.3187

 Total job time:  56.17s(wall), 54.22s(cpu)
        *  Thank you very much for using Q-Chem.  Have a nice day.  *
